t 8.4e-05 /NodeList/0/DeviceList/0/$ns3::WifiNetDevice/Phy/State/Tx OfdmRate3MbpsBW10MHz ns3::WifiMacHeader (DATA ToDS=0, FromDS=0, MoreFrag=0, Retry=0, MoreData=0 Duration/ID=0us, DA=33:33:ff:00:00:01, SA=00:00:00:00:00:01, BSSID=ff:ff:ff:ff:ff:ff, FragNumber=0, SeqNumber=0) ns3::LlcSnapHeader (type 0x86dd) ns3::Ipv6Header ((Version 6 Traffic class 0x0 DSCP Default Flow Label 0x0 Payload Length 32 Next Header 58 Hop Limit 255 ):: > ff02::1:ff00:1) ns3::Icmpv6NS (( type = 135 (NS) code = 0 target = fe80::200:ff:fe00:1 checksum = 7034)) ns3::Icmpv6OptionLinkLayerAddress (( type = 1 length = 1 L2 Address = 00-06-00:00:00:00:00:01)) ns3::WifiMacTrailer ()
r 0.000420047 OfdmRate3MbpsBW10MHz/NodeList/1/DeviceList/0/$ns3::WifiNetDevice/Phy/State/RxOk ns3::WifiMacHeader (DATA ToDS=0, FromDS=0, MoreFrag=0, Retry=0, MoreData=0 Duration/ID=0us, DA=33:33:ff:00:00:01, SA=00:00:00:00:00:01, BSSID=ff:ff:ff:ff:ff:ff, FragNumber=0, SeqNumber=0) ns3::LlcSnapHeader (type 0x86dd) ns3::Ipv6Header ((Version 6 Traffic class 0x0 DSCP Default Flow Label 0x0 Payload Length 32 Next Header 58 Hop Limit 255 ):: > ff02::1:ff00:1) ns3::Icmpv6NS (( type = 135 (NS) code = 0 target = fe80::200:ff:fe00:1 checksum = 7034)) ns3::Icmpv6OptionLinkLayerAddress (( type = 1 length = 1 L2 Address = 00-06-00:00:00:00:00:01)) ns3::WifiMacTrailer ()
t 0.000582 /NodeList/0/DeviceList/0/$ns3::WifiNetDevice/Phy/State/Tx OfdmRate3MbpsBW10MHz ns3::WifiMacHeader (DATA ToDS=0, FromDS=0, MoreFrag=0, Retry=0, MoreData=0 Duration/ID=0us, DA=33:33:ff:00:00:01, SA=00:00:00:00:00:01, BSSID=ff:ff:ff:ff:ff:ff, FragNumber=0, SeqNumber=1) ns3::LlcSnapHeader (type 0x86dd) ns3::Ipv6Header ((Version 6 Traffic class 0x0 DSCP Default Flow Label 0x0 Payload Length 32 Next Header 58 Hop Limit 255 ):: > ff02::1:ff00:1) ns3::Icmpv6NS (( type = 135 (NS) code = 0 target = 2001:1::200:ff:fe00:1 checksum = 39512)) ns3::Icmpv6OptionLinkLayerAddress (( type = 1 length = 1 L2 Address = 00-06-00:00:00:00:00:01)) ns3::WifiMacTrailer ()
r 0.000918047 OfdmRate3MbpsBW10MHz/NodeList/1/DeviceList/0/$ns3::WifiNetDevice/Phy/State/RxOk ns3::WifiMacHeader (DATA ToDS=0, FromDS=0, MoreFrag=0, Retry=0, MoreData=0 Duration/ID=0us, DA=33:33:ff:00:00:01, SA=00:00:00:00:00:01, BSSID=ff:ff:ff:ff:ff:ff, FragNumber=0, SeqNumber=1) ns3::LlcSnapHeader (type 0x86dd) ns3::Ipv6Header ((Version 6 Traffic class 0x0 DSCP Default Flow Label 0x0 Payload Length 32 Next Header 58 Hop Limit 255 ):: > ff02::1:ff00:1) ns3::Icmpv6NS (( type = 135 (NS) code = 0 target = 2001:1::200:ff:fe00:1 checksum = 39512)) ns3::Icmpv6OptionLinkLayerAddress (( type = 1 length = 1 L2 Address = 00-06-00:00:00:00:00:01)) ns3::WifiMacTrailer ()
t 0.006058 /NodeList/1/DeviceList/0/$ns3::WifiNetDevice/Phy/State/Tx OfdmRate3MbpsBW10MHz ns3::WifiMacHeader (DATA ToDS=0, FromDS=0, MoreFrag=0, Retry=0, MoreData=0 Duration/ID=0us, DA=33:33:ff:00:00:02, SA=00:00:00:00:00:02, BSSID=ff:ff:ff:ff:ff:ff, FragNumber=0, SeqNumber=0) ns3::LlcSnapHeader (type 0x86dd) ns3::Ipv6Header ((Version 6 Traffic class 0x0 DSCP Default Flow Label 0x0 Payload Length 32 Next Header 58 Hop Limit 255 ):: > ff02::1:ff00:2) ns3::Icmpv6NS (( type = 135 (NS) code = 0 target = fe80::200:ff:fe00:2 checksum = 6266)) ns3::Icmpv6OptionLinkLayerAddress (( type = 1 length = 1 L2 Address = 00-06-00:00:00:00:00:02)) ns3::WifiMacTrailer ()
r 0.00639405 OfdmRate3MbpsBW10MHz/NodeList/0/DeviceList/0/$ns3::WifiNetDevice/Phy/State/RxOk ns3::WifiMacHeader (DATA ToDS=0, FromDS=0, MoreFrag=0, Retry=0, MoreData=0 Duration/ID=0us, DA=33:33:ff:00:00:02, SA=00:00:00:00:00:02, BSSID=ff:ff:ff:ff:ff:ff, FragNumber=0, SeqNumber=0) ns3::LlcSnapHeader (type 0x86dd) ns3::Ipv6Header ((Version 6 Traffic class 0x0 DSCP Default Flow Label 0x0 Payload Length 32 Next Header 58 Hop Limit 255 ):: > ff02::1:ff00:2) ns3::Icmpv6NS (( type = 135 (NS) code = 0 target = fe80::200:ff:fe00:2 checksum = 6266)) ns3::Icmpv6OptionLinkLayerAddress (( type = 1 length = 1 L2 Address = 00-06-00:00:00:00:00:02)) ns3::WifiMacTrailer ()
t 0.00653 /NodeList/1/DeviceList/0/$ns3::WifiNetDevice/Phy/State/Tx OfdmRate3MbpsBW10MHz ns3::WifiMacHeader (DATA ToDS=0, FromDS=0, MoreFrag=0, Retry=0, MoreData=0 Duration/ID=0us, DA=33:33:ff:00:00:02, SA=00:00:00:00:00:02, BSSID=ff:ff:ff:ff:ff:ff, FragNumber=0, SeqNumber=1) ns3::LlcSnapHeader (type 0x86dd) ns3::Ipv6Header ((Version 6 Traffic class 0x0 DSCP Default Flow Label 0x0 Payload Length 32 Next Header 58 Hop Limit 255 ):: > ff02::1:ff00:2) ns3::Icmpv6NS (( type = 135 (NS) code = 0 target = 2001:1::200:ff:fe00:2 checksum = 38744)) ns3::Icmpv6OptionLinkLayerAddress (( type = 1 length = 1 L2 Address = 00-06-00:00:00:00:00:02)) ns3::WifiMacTrailer ()
r 0.00686605 OfdmRate3MbpsBW10MHz/NodeList/0/DeviceList/0/$ns3::WifiNetDevice/Phy/State/RxOk ns3::WifiMacHeader (DATA ToDS=0, FromDS=0, MoreFrag=0, Retry=0, MoreData=0 Duration/ID=0us, DA=33:33:ff:00:00:02, SA=00:00:00:00:00:02, BSSID=ff:ff:ff:ff:ff:ff, FragNumber=0, SeqNumber=1) ns3::LlcSnapHeader (type 0x86dd) ns3::Ipv6Header ((Version 6 Traffic class 0x0 DSCP Default Flow Label 0x0 Payload Length 32 Next Header 58 Hop Limit 255 ):: > ff02::1:ff00:2) ns3::Icmpv6NS (( type = 135 (NS) code = 0 target = 2001:1::200:ff:fe00:2 checksum = 38744)) ns3::Icmpv6OptionLinkLayerAddress (( type = 1 length = 1 L2 Address = 00-06-00:00:00:00:00:02)) ns3::WifiMacTrailer ()
t 1.00006 /NodeList/0/DeviceList/0/$ns3::WifiNetDevice/Phy/State/Tx OfdmRate3MbpsBW10MHz ns3::WifiMacHeader (DATA ToDS=0, FromDS=0, MoreFrag=0, Retry=0, MoreData=0 Duration/ID=0us, DA=33:33:00:00:00:02, SA=00:00:00:00:00:01, BSSID=ff:ff:ff:ff:ff:ff, FragNumber=0, SeqNumber=2) ns3::LlcSnapHeader (type 0x86dd) ns3::Ipv6Header ((Version 6 Traffic class 0x0 DSCP Default Flow Label 0x0 Payload Length 16 Next Header 58 Hop Limit 255 )fe80::200:ff:fe00:1 > ff02::2) ns3::Icmpv6RS (( type = 133 (RS) code = 0 checksum = 11387)) ns3::Icmpv6OptionLinkLayerAddress (( type = 1 length = 1 L2 Address = 00-06-00:00:00:00:00:01)) ns3::WifiMacTrailer ()
r 1.00035 OfdmRate3MbpsBW10MHz/NodeList/1/DeviceList/0/$ns3::WifiNetDevice/Phy/State/RxOk ns3::WifiMacHeader (DATA ToDS=0, FromDS=0, MoreFrag=0, Retry=0, MoreData=0 Duration/ID=0us, DA=33:33:00:00:00:02, SA=00:00:00:00:00:01, BSSID=ff:ff:ff:ff:ff:ff, FragNumber=0, SeqNumber=2) ns3::LlcSnapHeader (type 0x86dd) ns3::Ipv6Header ((Version 6 Traffic class 0x0 DSCP Default Flow Label 0x0 Payload Length 16 Next Header 58 Hop Limit 255 )fe80::200:ff:fe00:1 > ff02::2) ns3::Icmpv6RS (( type = 133 (RS) code = 0 checksum = 11387)) ns3::Icmpv6OptionLinkLayerAddress (( type = 1 length = 1 L2 Address = 00-06-00:00:00:00:00:01)) ns3::WifiMacTrailer ()
t 1.00606 /NodeList/1/DeviceList/0/$ns3::WifiNetDevice/Phy/State/Tx OfdmRate3MbpsBW10MHz ns3::WifiMacHeader (DATA ToDS=0, FromDS=0, MoreFrag=0, Retry=0, MoreData=0 Duration/ID=0us, DA=33:33:00:00:00:02, SA=00:00:00:00:00:02, BSSID=ff:ff:ff:ff:ff:ff, FragNumber=0, SeqNumber=2) ns3::LlcSnapHeader (type 0x86dd) ns3::Ipv6Header ((Version 6 Traffic class 0x0 DSCP Default Flow Label 0x0 Payload Length 16 Next Header 58 Hop Limit 255 )fe80::200:ff:fe00:2 > ff02::2) ns3::Icmpv6RS (( type = 133 (RS) code = 0 checksum = 10875)) ns3::Icmpv6OptionLinkLayerAddress (( type = 1 length = 1 L2 Address = 00-06-00:00:00:00:00:02)) ns3::WifiMacTrailer ()
r 1.00635 OfdmRate3MbpsBW10MHz/NodeList/0/DeviceList/0/$ns3::WifiNetDevice/Phy/State/RxOk ns3::WifiMacHeader (DATA ToDS=0, FromDS=0, MoreFrag=0, Retry=0, MoreData=0 Duration/ID=0us, DA=33:33:00:00:00:02, SA=00:00:00:00:00:02, BSSID=ff:ff:ff:ff:ff:ff, FragNumber=0, SeqNumber=2) ns3::LlcSnapHeader (type 0x86dd) ns3::Ipv6Header ((Version 6 Traffic class 0x0 DSCP Default Flow Label 0x0 Payload Length 16 Next Header 58 Hop Limit 255 )fe80::200:ff:fe00:2 > ff02::2) ns3::Icmpv6RS (( type = 133 (RS) code = 0 checksum = 10875)) ns3::Icmpv6OptionLinkLayerAddress (( type = 1 length = 1 L2 Address = 00-06-00:00:00:00:00:02)) ns3::WifiMacTrailer ()
t 5.00706 /NodeList/0/DeviceList/0/$ns3::WifiNetDevice/Phy/State/Tx OfdmRate3MbpsBW10MHz ns3::WifiMacHeader (DATA ToDS=0, FromDS=0, MoreFrag=0, Retry=0, MoreData=0 Duration/ID=0us, DA=33:33:ff:00:00:02, SA=00:00:00:00:00:01, BSSID=ff:ff:ff:ff:ff:ff, FragNumber=0, SeqNumber=3) ns3::LlcSnapHeader (type 0x86dd) ns3::Ipv6Header ((Version 6 Traffic class 0x0 DSCP Default Flow Label 0x0 Payload Length 32 Next Header 58 Hop Limit 255 )2001:1::200:ff:fe00:1 > ff02::1:ff00:2) ns3::Icmpv6NS (( type = 135 (NS) code = 0 target = 2001:1::200:ff:fe00:2 checksum = 38199)) ns3::Icmpv6OptionLinkLayerAddress (( type = 1 length = 1 L2 Address = 00-06-00:00:00:00:00:01)) ns3::WifiMacTrailer ()
r 5.00739 OfdmRate3MbpsBW10MHz/NodeList/1/DeviceList/0/$ns3::WifiNetDevice/Phy/State/RxOk ns3::WifiMacHeader (DATA ToDS=0, FromDS=0, MoreFrag=0, Retry=0, MoreData=0 Duration/ID=0us, DA=33:33:ff:00:00:02, SA=00:00:00:00:00:01, BSSID=ff:ff:ff:ff:ff:ff, FragNumber=0, SeqNumber=3) ns3::LlcSnapHeader (type 0x86dd) ns3::Ipv6Header ((Version 6 Traffic class 0x0 DSCP Default Flow Label 0x0 Payload Length 32 Next Header 58 Hop Limit 255 )2001:1::200:ff:fe00:1 > ff02::1:ff00:2) ns3::Icmpv6NS (( type = 135 (NS) code = 0 target = 2001:1::200:ff:fe00:2 checksum = 38199)) ns3::Icmpv6OptionLinkLayerAddress (( type = 1 length = 1 L2 Address = 00-06-00:00:00:00:00:01)) ns3::WifiMacTrailer ()
t 5.00745 /NodeList/1/DeviceList/0/$ns3::WifiNetDevice/Phy/State/Tx OfdmRate6MbpsBW10MHz ns3::WifiMacHeader (DATA ToDS=0, FromDS=0, MoreFrag=0, Retry=0, MoreData=0 Duration/ID=96us, DA=00:00:00:00:00:01, SA=00:00:00:00:00:02, BSSID=ff:ff:ff:ff:ff:ff, FragNumber=0, SeqNumber=3) ns3::LlcSnapHeader (type 0x86dd) ns3::Ipv6Header ((Version 6 Traffic class 0x0 DSCP Default Flow Label 0x0 Payload Length 32 Next Header 58 Hop Limit 255 )2001:1::200:ff:fe00:2 > 2001:1::200:ff:fe00:1) ns3::Icmpv6NA (( type = 136 (NA) code = 0 checksum = 38578)) ns3::Icmpv6OptionLinkLayerAddress (( type = 2 length = 1 L2 Address = 00-06-00:00:00:00:00:02)) ns3::WifiMacTrailer ()
r 5.00764 OfdmRate6MbpsBW10MHz/NodeList/0/DeviceList/0/$ns3::WifiNetDevice/Phy/State/RxOk ns3::WifiMacHeader (DATA ToDS=0, FromDS=0, MoreFrag=0, Retry=0, MoreData=0 Duration/ID=96us, DA=00:00:00:00:00:01, SA=00:00:00:00:00:02, BSSID=ff:ff:ff:ff:ff:ff, FragNumber=0, SeqNumber=3) ns3::LlcSnapHeader (type 0x86dd) ns3::Ipv6Header ((Version 6 Traffic class 0x0 DSCP Default Flow Label 0x0 Payload Length 32 Next Header 58 Hop Limit 255 )2001:1::200:ff:fe00:2 > 2001:1::200:ff:fe00:1) ns3::Icmpv6NA (( type = 136 (NA) code = 0 checksum = 38578)) ns3::Icmpv6OptionLinkLayerAddress (( type = 2 length = 1 L2 Address = 00-06-00:00:00:00:00:02)) ns3::WifiMacTrailer ()
t 5.00768 /NodeList/0/DeviceList/0/$ns3::WifiNetDevice/Phy/State/Tx OfdmRate6MbpsBW10MHz ns3::WifiMacHeader (CTL_ACK Duration/ID=0us, RA=00:00:00:00:00:02) ns3::WifiMacTrailer ()
r 5.00774 OfdmRate6MbpsBW10MHz/NodeList/1/DeviceList/0/$ns3::WifiNetDevice/Phy/State/RxOk ns3::WifiMacHeader (CTL_ACK Duration/ID=0us, RA=00:00:00:00:00:02) ns3::WifiMacTrailer ()
t 5.00786 /NodeList/0/DeviceList/0/$ns3::WifiNetDevice/Phy/State/Tx OfdmRate6MbpsBW10MHz ns3::WifiMacHeader (DATA ToDS=0, FromDS=0, MoreFrag=0, Retry=0, MoreData=0 Duration/ID=96us, DA=00:00:00:00:00:02, SA=00:00:00:00:00:01, BSSID=ff:ff:ff:ff:ff:ff, FragNumber=0, SeqNumber=4) ns3::LlcSnapHeader (type 0x86dd) ns3::Ipv6Header ((Version 6 Traffic class 0x0 DSCP Default Flow Label 0x0 Payload Length 18 Next Header 58 Hop Limit 64 )2001:1::200:ff:fe00:1 > 2001:1::200:ff:fe00:2) ns3::Icmpv6Echo (( type = 128 (Request) code = 0 checksum = 7905)) Payload (size=10) ns3::WifiMacTrailer ()
r 5.00804 OfdmRate6MbpsBW10MHz/NodeList/1/DeviceList/0/$ns3::WifiNetDevice/Phy/State/RxOk ns3::WifiMacHeader (DATA ToDS=0, FromDS=0, MoreFrag=0, Retry=0, MoreData=0 Duration/ID=96us, DA=00:00:00:00:00:02, SA=00:00:00:00:00:01, BSSID=ff:ff:ff:ff:ff:ff, FragNumber=0, SeqNumber=4) ns3::LlcSnapHeader (type 0x86dd) ns3::Ipv6Header ((Version 6 Traffic class 0x0 DSCP Default Flow Label 0x0 Payload Length 18 Next Header 58 Hop Limit 64 )2001:1::200:ff:fe00:1 > 2001:1::200:ff:fe00:2) ns3::Icmpv6Echo (( type = 128 (Request) code = 0 checksum = 7905)) Payload (size=10) ns3::WifiMacTrailer ()
t 5.00807 /NodeList/1/DeviceList/0/$ns3::WifiNetDevice/Phy/State/Tx OfdmRate6MbpsBW10MHz ns3::WifiMacHeader (CTL_ACK Duration/ID=0us, RA=00:00:00:00:00:01) ns3::WifiMacTrailer ()
r 5.00814 OfdmRate6MbpsBW10MHz/NodeList/0/DeviceList/0/$ns3::WifiNetDevice/Phy/State/RxOk ns3::WifiMacHeader (CTL_ACK Duration/ID=0us, RA=00:00:00:00:00:01) ns3::WifiMacTrailer ()
t 5.00819 /NodeList/1/DeviceList/0/$ns3::WifiNetDevice/Phy/State/Tx OfdmRate6MbpsBW10MHz ns3::WifiMacHeader (DATA ToDS=0, FromDS=0, MoreFrag=0, Retry=0, MoreData=0 Duration/ID=96us, DA=00:00:00:00:00:01, SA=00:00:00:00:00:02, BSSID=ff:ff:ff:ff:ff:ff, FragNumber=0, SeqNumber=4) ns3::LlcSnapHeader (type 0x86dd) ns3::Ipv6Header ((Version 6 Traffic class 0x0 DSCP Default Flow Label 0x0 Payload Length 18 Next Header 58 Hop Limit 64 )2001:1::200:ff:fe00:2 > 2001:1::200:ff:fe00:1) ns3::Icmpv6Echo (( type = 129 (Reply) code = 0 checksum = 7904)) Payload (size=10) ns3::WifiMacTrailer ()
r 5.00837 OfdmRate6MbpsBW10MHz/NodeList/0/DeviceList/0/$ns3::WifiNetDevice/Phy/State/RxOk ns3::WifiMacHeader (DATA ToDS=0, FromDS=0, MoreFrag=0, Retry=0, MoreData=0 Duration/ID=96us, DA=00:00:00:00:00:01, SA=00:00:00:00:00:02, BSSID=ff:ff:ff:ff:ff:ff, FragNumber=0, SeqNumber=4) ns3::LlcSnapHeader (type 0x86dd) ns3::Ipv6Header ((Version 6 Traffic class 0x0 DSCP Default Flow Label 0x0 Payload Length 18 Next Header 58 Hop Limit 64 )2001:1::200:ff:fe00:2 > 2001:1::200:ff:fe00:1) ns3::Icmpv6Echo (( type = 129 (Reply) code = 0 checksum = 7904)) Payload (size=10) ns3::WifiMacTrailer ()
t 5.0084 /NodeList/0/DeviceList/0/$ns3::WifiNetDevice/Phy/State/Tx OfdmRate6MbpsBW10MHz ns3::WifiMacHeader (CTL_ACK Duration/ID=0us, RA=00:00:00:00:00:02) ns3::WifiMacTrailer ()
r 5.00847 OfdmRate6MbpsBW10MHz/NodeList/1/DeviceList/0/$ns3::WifiNetDevice/Phy/State/RxOk ns3::WifiMacHeader (CTL_ACK Duration/ID=0us, RA=00:00:00:00:00:02) ns3::WifiMacTrailer ()
t 6.00006 /NodeList/0/DeviceList/0/$ns3::WifiNetDevice/Phy/State/Tx OfdmRate6MbpsBW10MHz ns3::WifiMacHeader (DATA ToDS=0, FromDS=0, MoreFrag=0, Retry=0, MoreData=0 Duration/ID=96us, DA=00:00:00:00:00:02, SA=00:00:00:00:00:01, BSSID=ff:ff:ff:ff:ff:ff, FragNumber=0, SeqNumber=5) ns3::LlcSnapHeader (type 0x86dd) ns3::Ipv6Header ((Version 6 Traffic class 0x0 DSCP Default Flow Label 0x0 Payload Length 18 Next Header 58 Hop Limit 64 )2001:1::200:ff:fe00:1 > 2001:1::200:ff:fe00:2) ns3::Icmpv6Echo (( type = 128 (Request) code = 0 checksum = 7649)) Payload (size=10) ns3::WifiMacTrailer ()
r 6.00023 OfdmRate6MbpsBW10MHz/NodeList/1/DeviceList/0/$ns3::WifiNetDevice/Phy/State/RxOk ns3::WifiMacHeader (DATA ToDS=0, FromDS=0, MoreFrag=0, Retry=0, MoreData=0 Duration/ID=96us, DA=00:00:00:00:00:02, SA=00:00:00:00:00:01, BSSID=ff:ff:ff:ff:ff:ff, FragNumber=0, SeqNumber=5) ns3::LlcSnapHeader (type 0x86dd) ns3::Ipv6Header ((Version 6 Traffic class 0x0 DSCP Default Flow Label 0x0 Payload Length 18 Next Header 58 Hop Limit 64 )2001:1::200:ff:fe00:1 > 2001:1::200:ff:fe00:2) ns3::Icmpv6Echo (( type = 128 (Request) code = 0 checksum = 7649)) Payload (size=10) ns3::WifiMacTrailer ()
t 6.00027 /NodeList/1/DeviceList/0/$ns3::WifiNetDevice/Phy/State/Tx OfdmRate6MbpsBW10MHz ns3::WifiMacHeader (CTL_ACK Duration/ID=0us, RA=00:00:00:00:00:01) ns3::WifiMacTrailer ()
r 6.00033 OfdmRate6MbpsBW10MHz/NodeList/0/DeviceList/0/$ns3::WifiNetDevice/Phy/State/RxOk ns3::WifiMacHeader (CTL_ACK Duration/ID=0us, RA=00:00:00:00:00:01) ns3::WifiMacTrailer ()
t 6.00039 /NodeList/1/DeviceList/0/$ns3::WifiNetDevice/Phy/State/Tx OfdmRate6MbpsBW10MHz ns3::WifiMacHeader (DATA ToDS=0, FromDS=0, MoreFrag=0, Retry=0, MoreData=0 Duration/ID=96us, DA=00:00:00:00:00:01, SA=00:00:00:00:00:02, BSSID=ff:ff:ff:ff:ff:ff, FragNumber=0, SeqNumber=5) ns3::LlcSnapHeader (type 0x86dd) ns3::Ipv6Header ((Version 6 Traffic class 0x0 DSCP Default Flow Label 0x0 Payload Length 18 Next Header 58 Hop Limit 64 )2001:1::200:ff:fe00:2 > 2001:1::200:ff:fe00:1) ns3::Icmpv6Echo (( type = 129 (Reply) code = 0 checksum = 7648)) Payload (size=10) ns3::WifiMacTrailer ()
r 6.00056 OfdmRate6MbpsBW10MHz/NodeList/0/DeviceList/0/$ns3::WifiNetDevice/Phy/State/RxOk ns3::WifiMacHeader (DATA ToDS=0, FromDS=0, MoreFrag=0, Retry=0, MoreData=0 Duration/ID=96us, DA=00:00:00:00:00:01, SA=00:00:00:00:00:02, BSSID=ff:ff:ff:ff:ff:ff, FragNumber=0, SeqNumber=5) ns3::LlcSnapHeader (type 0x86dd) ns3::Ipv6Header ((Version 6 Traffic class 0x0 DSCP Default Flow Label 0x0 Payload Length 18 Next Header 58 Hop Limit 64 )2001:1::200:ff:fe00:2 > 2001:1::200:ff:fe00:1) ns3::Icmpv6Echo (( type = 129 (Reply) code = 0 checksum = 7648)) Payload (size=10) ns3::WifiMacTrailer ()
t 6.0006 /NodeList/0/DeviceList/0/$ns3::WifiNetDevice/Phy/State/Tx OfdmRate6MbpsBW10MHz ns3::WifiMacHeader (CTL_ACK Duration/ID=0us, RA=00:00:00:00:00:02) ns3::WifiMacTrailer ()
r 6.00066 OfdmRate6MbpsBW10MHz/NodeList/1/DeviceList/0/$ns3::WifiNetDevice/Phy/State/RxOk ns3::WifiMacHeader (CTL_ACK Duration/ID=0us, RA=00:00:00:00:00:02) ns3::WifiMacTrailer ()
t 7.00006 /NodeList/0/DeviceList/0/$ns3::WifiNetDevice/Phy/State/Tx OfdmRate6MbpsBW10MHz ns3::WifiMacHeader (DATA ToDS=0, FromDS=0, MoreFrag=0, Retry=0, MoreData=0 Duration/ID=96us, DA=00:00:00:00:00:02, SA=00:00:00:00:00:01, BSSID=ff:ff:ff:ff:ff:ff, FragNumber=0, SeqNumber=6) ns3::LlcSnapHeader (type 0x86dd) ns3::Ipv6Header ((Version 6 Traffic class 0x0 DSCP Default Flow Label 0x0 Payload Length 18 Next Header 58 Hop Limit 64 )2001:1::200:ff:fe00:1 > 2001:1::200:ff:fe00:2) ns3::Icmpv6Echo (( type = 128 (Request) code = 0 checksum = 7393)) Payload (size=10) ns3::WifiMacTrailer ()
r 7.00023 OfdmRate6MbpsBW10MHz/NodeList/1/DeviceList/0/$ns3::WifiNetDevice/Phy/State/RxOk ns3::WifiMacHeader (DATA ToDS=0, FromDS=0, MoreFrag=0, Retry=0, MoreData=0 Duration/ID=96us, DA=00:00:00:00:00:02, SA=00:00:00:00:00:01, BSSID=ff:ff:ff:ff:ff:ff, FragNumber=0, SeqNumber=6) ns3::LlcSnapHeader (type 0x86dd) ns3::Ipv6Header ((Version 6 Traffic class 0x0 DSCP Default Flow Label 0x0 Payload Length 18 Next Header 58 Hop Limit 64 )2001:1::200:ff:fe00:1 > 2001:1::200:ff:fe00:2) ns3::Icmpv6Echo (( type = 128 (Request) code = 0 checksum = 7393)) Payload (size=10) ns3::WifiMacTrailer ()
t 7.00027 /NodeList/1/DeviceList/0/$ns3::WifiNetDevice/Phy/State/Tx OfdmRate6MbpsBW10MHz ns3::WifiMacHeader (CTL_ACK Duration/ID=0us, RA=00:00:00:00:00:01) ns3::WifiMacTrailer ()
r 7.00033 OfdmRate6MbpsBW10MHz/NodeList/0/DeviceList/0/$ns3::WifiNetDevice/Phy/State/RxOk ns3::WifiMacHeader (CTL_ACK Duration/ID=0us, RA=00:00:00:00:00:01) ns3::WifiMacTrailer ()
t 7.00039 /NodeList/1/DeviceList/0/$ns3::WifiNetDevice/Phy/State/Tx OfdmRate6MbpsBW10MHz ns3::WifiMacHeader (DATA ToDS=0, FromDS=0, MoreFrag=0, Retry=0, MoreData=0 Duration/ID=96us, DA=00:00:00:00:00:01, SA=00:00:00:00:00:02, BSSID=ff:ff:ff:ff:ff:ff, FragNumber=0, SeqNumber=6) ns3::LlcSnapHeader (type 0x86dd) ns3::Ipv6Header ((Version 6 Traffic class 0x0 DSCP Default Flow Label 0x0 Payload Length 18 Next Header 58 Hop Limit 64 )2001:1::200:ff:fe00:2 > 2001:1::200:ff:fe00:1) ns3::Icmpv6Echo (( type = 129 (Reply) code = 0 checksum = 7392)) Payload (size=10) ns3::WifiMacTrailer ()
r 7.00056 OfdmRate6MbpsBW10MHz/NodeList/0/DeviceList/0/$ns3::WifiNetDevice/Phy/State/RxOk ns3::WifiMacHeader (DATA ToDS=0, FromDS=0, MoreFrag=0, Retry=0, MoreData=0 Duration/ID=96us, DA=00:00:00:00:00:01, SA=00:00:00:00:00:02, BSSID=ff:ff:ff:ff:ff:ff, FragNumber=0, SeqNumber=6) ns3::LlcSnapHeader (type 0x86dd) ns3::Ipv6Header ((Version 6 Traffic class 0x0 DSCP Default Flow Label 0x0 Payload Length 18 Next Header 58 Hop Limit 64 )2001:1::200:ff:fe00:2 > 2001:1::200:ff:fe00:1) ns3::Icmpv6Echo (( type = 129 (Reply) code = 0 checksum = 7392)) Payload (size=10) ns3::WifiMacTrailer ()
t 7.0006 /NodeList/0/DeviceList/0/$ns3::WifiNetDevice/Phy/State/Tx OfdmRate6MbpsBW10MHz ns3::WifiMacHeader (CTL_ACK Duration/ID=0us, RA=00:00:00:00:00:02) ns3::WifiMacTrailer ()
r 7.00066 OfdmRate6MbpsBW10MHz/NodeList/1/DeviceList/0/$ns3::WifiNetDevice/Phy/State/RxOk ns3::WifiMacHeader (CTL_ACK Duration/ID=0us, RA=00:00:00:00:00:02) ns3::WifiMacTrailer ()
t 8.00006 /NodeList/0/DeviceList/0/$ns3::WifiNetDevice/Phy/State/Tx OfdmRate6MbpsBW10MHz ns3::WifiMacHeader (DATA ToDS=0, FromDS=0, MoreFrag=0, Retry=0, MoreData=0 Duration/ID=96us, DA=00:00:00:00:00:02, SA=00:00:00:00:00:01, BSSID=ff:ff:ff:ff:ff:ff, FragNumber=0, SeqNumber=7) ns3::LlcSnapHeader (type 0x86dd) ns3::Ipv6Header ((Version 6 Traffic class 0x0 DSCP Default Flow Label 0x0 Payload Length 18 Next Header 58 Hop Limit 64 )2001:1::200:ff:fe00:1 > 2001:1::200:ff:fe00:2) ns3::Icmpv6Echo (( type = 128 (Request) code = 0 checksum = 7137)) Payload (size=10) ns3::WifiMacTrailer ()
r 8.00023 OfdmRate6MbpsBW10MHz/NodeList/1/DeviceList/0/$ns3::WifiNetDevice/Phy/State/RxOk ns3::WifiMacHeader (DATA ToDS=0, FromDS=0, MoreFrag=0, Retry=0, MoreData=0 Duration/ID=96us, DA=00:00:00:00:00:02, SA=00:00:00:00:00:01, BSSID=ff:ff:ff:ff:ff:ff, FragNumber=0, SeqNumber=7) ns3::LlcSnapHeader (type 0x86dd) ns3::Ipv6Header ((Version 6 Traffic class 0x0 DSCP Default Flow Label 0x0 Payload Length 18 Next Header 58 Hop Limit 64 )2001:1::200:ff:fe00:1 > 2001:1::200:ff:fe00:2) ns3::Icmpv6Echo (( type = 128 (Request) code = 0 checksum = 7137)) Payload (size=10) ns3::WifiMacTrailer ()
t 8.00027 /NodeList/1/DeviceList/0/$ns3::WifiNetDevice/Phy/State/Tx OfdmRate6MbpsBW10MHz ns3::WifiMacHeader (CTL_ACK Duration/ID=0us, RA=00:00:00:00:00:01) ns3::WifiMacTrailer ()
r 8.00033 OfdmRate6MbpsBW10MHz/NodeList/0/DeviceList/0/$ns3::WifiNetDevice/Phy/State/RxOk ns3::WifiMacHeader (CTL_ACK Duration/ID=0us, RA=00:00:00:00:00:01) ns3::WifiMacTrailer ()
t 8.00039 /NodeList/1/DeviceList/0/$ns3::WifiNetDevice/Phy/State/Tx OfdmRate6MbpsBW10MHz ns3::WifiMacHeader (DATA ToDS=0, FromDS=0, MoreFrag=0, Retry=0, MoreData=0 Duration/ID=96us, DA=00:00:00:00:00:01, SA=00:00:00:00:00:02, BSSID=ff:ff:ff:ff:ff:ff, FragNumber=0, SeqNumber=7) ns3::LlcSnapHeader (type 0x86dd) ns3::Ipv6Header ((Version 6 Traffic class 0x0 DSCP Default Flow Label 0x0 Payload Length 18 Next Header 58 Hop Limit 64 )2001:1::200:ff:fe00:2 > 2001:1::200:ff:fe00:1) ns3::Icmpv6Echo (( type = 129 (Reply) code = 0 checksum = 7136)) Payload (size=10) ns3::WifiMacTrailer ()
r 8.00056 OfdmRate6MbpsBW10MHz/NodeList/0/DeviceList/0/$ns3::WifiNetDevice/Phy/State/RxOk ns3::WifiMacHeader (DATA ToDS=0, FromDS=0, MoreFrag=0, Retry=0, MoreData=0 Duration/ID=96us, DA=00:00:00:00:00:01, SA=00:00:00:00:00:02, BSSID=ff:ff:ff:ff:ff:ff, FragNumber=0, SeqNumber=7) ns3::LlcSnapHeader (type 0x86dd) ns3::Ipv6Header ((Version 6 Traffic class 0x0 DSCP Default Flow Label 0x0 Payload Length 18 Next Header 58 Hop Limit 64 )2001:1::200:ff:fe00:2 > 2001:1::200:ff:fe00:1) ns3::Icmpv6Echo (( type = 129 (Reply) code = 0 checksum = 7136)) Payload (size=10) ns3::WifiMacTrailer ()
t 8.0006 /NodeList/0/DeviceList/0/$ns3::WifiNetDevice/Phy/State/Tx OfdmRate6MbpsBW10MHz ns3::WifiMacHeader (CTL_ACK Duration/ID=0us, RA=00:00:00:00:00:02) ns3::WifiMacTrailer ()
r 8.00066 OfdmRate6MbpsBW10MHz/NodeList/1/DeviceList/0/$ns3::WifiNetDevice/Phy/State/RxOk ns3::WifiMacHeader (CTL_ACK Duration/ID=0us, RA=00:00:00:00:00:02) ns3::WifiMacTrailer ()
t 9.00006 /NodeList/0/DeviceList/0/$ns3::WifiNetDevice/Phy/State/Tx OfdmRate6MbpsBW10MHz ns3::WifiMacHeader (DATA ToDS=0, FromDS=0, MoreFrag=0, Retry=0, MoreData=0 Duration/ID=96us, DA=00:00:00:00:00:02, SA=00:00:00:00:00:01, BSSID=ff:ff:ff:ff:ff:ff, FragNumber=0, SeqNumber=8) ns3::LlcSnapHeader (type 0x86dd) ns3::Ipv6Header ((Version 6 Traffic class 0x0 DSCP Default Flow Label 0x0 Payload Length 18 Next Header 58 Hop Limit 64 )2001:1::200:ff:fe00:1 > 2001:1::200:ff:fe00:2) ns3::Icmpv6Echo (( type = 128 (Request) code = 0 checksum = 6881)) Payload (size=10) ns3::WifiMacTrailer ()
r 9.00023 OfdmRate6MbpsBW10MHz/NodeList/1/DeviceList/0/$ns3::WifiNetDevice/Phy/State/RxOk ns3::WifiMacHeader (DATA ToDS=0, FromDS=0, MoreFrag=0, Retry=0, MoreData=0 Duration/ID=96us, DA=00:00:00:00:00:02, SA=00:00:00:00:00:01, BSSID=ff:ff:ff:ff:ff:ff, FragNumber=0, SeqNumber=8) ns3::LlcSnapHeader (type 0x86dd) ns3::Ipv6Header ((Version 6 Traffic class 0x0 DSCP Default Flow Label 0x0 Payload Length 18 Next Header 58 Hop Limit 64 )2001:1::200:ff:fe00:1 > 2001:1::200:ff:fe00:2) ns3::Icmpv6Echo (( type = 128 (Request) code = 0 checksum = 6881)) Payload (size=10) ns3::WifiMacTrailer ()
t 9.00027 /NodeList/1/DeviceList/0/$ns3::WifiNetDevice/Phy/State/Tx OfdmRate6MbpsBW10MHz ns3::WifiMacHeader (CTL_ACK Duration/ID=0us, RA=00:00:00:00:00:01) ns3::WifiMacTrailer ()
r 9.00033 OfdmRate6MbpsBW10MHz/NodeList/0/DeviceList/0/$ns3::WifiNetDevice/Phy/State/RxOk ns3::WifiMacHeader (CTL_ACK Duration/ID=0us, RA=00:00:00:00:00:01) ns3::WifiMacTrailer ()
t 9.00039 /NodeList/1/DeviceList/0/$ns3::WifiNetDevice/Phy/State/Tx OfdmRate6MbpsBW10MHz ns3::WifiMacHeader (DATA ToDS=0, FromDS=0, MoreFrag=0, Retry=0, MoreData=0 Duration/ID=96us, DA=00:00:00:00:00:01, SA=00:00:00:00:00:02, BSSID=ff:ff:ff:ff:ff:ff, FragNumber=0, SeqNumber=8) ns3::LlcSnapHeader (type 0x86dd) ns3::Ipv6Header ((Version 6 Traffic class 0x0 DSCP Default Flow Label 0x0 Payload Length 18 Next Header 58 Hop Limit 64 )2001:1::200:ff:fe00:2 > 2001:1::200:ff:fe00:1) ns3::Icmpv6Echo (( type = 129 (Reply) code = 0 checksum = 6880)) Payload (size=10) ns3::WifiMacTrailer ()
r 9.00056 OfdmRate6MbpsBW10MHz/NodeList/0/DeviceList/0/$ns3::WifiNetDevice/Phy/State/RxOk ns3::WifiMacHeader (DATA ToDS=0, FromDS=0, MoreFrag=0, Retry=0, MoreData=0 Duration/ID=96us, DA=00:00:00:00:00:01, SA=00:00:00:00:00:02, BSSID=ff:ff:ff:ff:ff:ff, FragNumber=0, SeqNumber=8) ns3::LlcSnapHeader (type 0x86dd) ns3::Ipv6Header ((Version 6 Traffic class 0x0 DSCP Default Flow Label 0x0 Payload Length 18 Next Header 58 Hop Limit 64 )2001:1::200:ff:fe00:2 > 2001:1::200:ff:fe00:1) ns3::Icmpv6Echo (( type = 129 (Reply) code = 0 checksum = 6880)) Payload (size=10) ns3::WifiMacTrailer ()
t 9.0006 /NodeList/0/DeviceList/0/$ns3::WifiNetDevice/Phy/State/Tx OfdmRate6MbpsBW10MHz ns3::WifiMacHeader (CTL_ACK Duration/ID=0us, RA=00:00:00:00:00:02) ns3::WifiMacTrailer ()
r 9.00066 OfdmRate6MbpsBW10MHz/NodeList/1/DeviceList/0/$ns3::WifiNetDevice/Phy/State/RxOk ns3::WifiMacHeader (CTL_ACK Duration/ID=0us, RA=00:00:00:00:00:02) ns3::WifiMacTrailer ()
t 10.0075 /NodeList/1/DeviceList/0/$ns3::WifiNetDevice/Phy/State/Tx OfdmRate6MbpsBW10MHz ns3::WifiMacHeader (DATA ToDS=0, FromDS=0, MoreFrag=0, Retry=0, MoreData=0 Duration/ID=96us, DA=00:00:00:00:00:01, SA=00:00:00:00:00:02, BSSID=ff:ff:ff:ff:ff:ff, FragNumber=0, SeqNumber=9) ns3::LlcSnapHeader (type 0x86dd) ns3::Ipv6Header ((Version 6 Traffic class 0x0 DSCP Default Flow Label 0x0 Payload Length 32 Next Header 58 Hop Limit 255 )2001:1::200:ff:fe00:2 > 2001:1::200:ff:fe00:1) ns3::Icmpv6NS (( type = 135 (NS) code = 0 target = 2001:1::200:ff:fe00:1 checksum = 38932)) ns3::Icmpv6OptionLinkLayerAddress (( type = 1 length = 1 L2 Address = 00-06-00:00:00:00:00:02)) ns3::WifiMacTrailer ()
r 10.0076 OfdmRate6MbpsBW10MHz/NodeList/0/DeviceList/0/$ns3::WifiNetDevice/Phy/State/RxOk ns3::WifiMacHeader (DATA ToDS=0, FromDS=0, MoreFrag=0, Retry=0, MoreData=0 Duration/ID=96us, DA=00:00:00:00:00:01, SA=00:00:00:00:00:02, BSSID=ff:ff:ff:ff:ff:ff, FragNumber=0, SeqNumber=9) ns3::LlcSnapHeader (type 0x86dd) ns3::Ipv6Header ((Version 6 Traffic class 0x0 DSCP Default Flow Label 0x0 Payload Length 32 Next Header 58 Hop Limit 255 )2001:1::200:ff:fe00:2 > 2001:1::200:ff:fe00:1) ns3::Icmpv6NS (( type = 135 (NS) code = 0 target = 2001:1::200:ff:fe00:1 checksum = 38932)) ns3::Icmpv6OptionLinkLayerAddress (( type = 1 length = 1 L2 Address = 00-06-00:00:00:00:00:02)) ns3::WifiMacTrailer ()
t 10.0077 /NodeList/0/DeviceList/0/$ns3::WifiNetDevice/Phy/State/Tx OfdmRate6MbpsBW10MHz ns3::WifiMacHeader (CTL_ACK Duration/ID=0us, RA=00:00:00:00:00:02) ns3::WifiMacTrailer ()
r 10.0077 OfdmRate6MbpsBW10MHz/NodeList/1/DeviceList/0/$ns3::WifiNetDevice/Phy/State/RxOk ns3::WifiMacHeader (CTL_ACK Duration/ID=0us, RA=00:00:00:00:00:02) ns3::WifiMacTrailer ()
t 10.0078 /NodeList/0/DeviceList/0/$ns3::WifiNetDevice/Phy/State/Tx OfdmRate6MbpsBW10MHz ns3::WifiMacHeader (DATA ToDS=0, FromDS=0, MoreFrag=0, Retry=0, MoreData=0 Duration/ID=96us, DA=00:00:00:00:00:02, SA=00:00:00:00:00:01, BSSID=ff:ff:ff:ff:ff:ff, FragNumber=0, SeqNumber=9) ns3::LlcSnapHeader (type 0x86dd) ns3::Ipv6Header ((Version 6 Traffic class 0x0 DSCP Default Flow Label 0x0 Payload Length 32 Next Header 58 Hop Limit 255 )2001:1::200:ff:fe00:1 > 2001:1::200:ff:fe00:2) ns3::Icmpv6NA (( type = 136 (NA) code = 0 checksum = 39090)) ns3::Icmpv6OptionLinkLayerAddress (( type = 2 length = 1 L2 Address = 00-06-00:00:00:00:00:01)) ns3::WifiMacTrailer ()
r 10.008 OfdmRate6MbpsBW10MHz/NodeList/1/DeviceList/0/$ns3::WifiNetDevice/Phy/State/RxOk ns3::WifiMacHeader (DATA ToDS=0, FromDS=0, MoreFrag=0, Retry=0, MoreData=0 Duration/ID=96us, DA=00:00:00:00:00:02, SA=00:00:00:00:00:01, BSSID=ff:ff:ff:ff:ff:ff, FragNumber=0, SeqNumber=9) ns3::LlcSnapHeader (type 0x86dd) ns3::Ipv6Header ((Version 6 Traffic class 0x0 DSCP Default Flow Label 0x0 Payload Length 32 Next Header 58 Hop Limit 255 )2001:1::200:ff:fe00:1 > 2001:1::200:ff:fe00:2) ns3::Icmpv6NA (( type = 136 (NA) code = 0 checksum = 39090)) ns3::Icmpv6OptionLinkLayerAddress (( type = 2 length = 1 L2 Address = 00-06-00:00:00:00:00:01)) ns3::WifiMacTrailer ()
t 10.008 /NodeList/1/DeviceList/0/$ns3::WifiNetDevice/Phy/State/Tx OfdmRate6MbpsBW10MHz ns3::WifiMacHeader (CTL_ACK Duration/ID=0us, RA=00:00:00:00:00:01) ns3::WifiMacTrailer ()
r 10.0081 OfdmRate6MbpsBW10MHz/NodeList/0/DeviceList/0/$ns3::WifiNetDevice/Phy/State/RxOk ns3::WifiMacHeader (CTL_ACK Duration/ID=0us, RA=00:00:00:00:00:01) ns3::WifiMacTrailer ()
