t 0.001058 /NodeList/1/DeviceList/0/$ns3::WifiNetDevice/Phy/State/Tx OfdmRate3MbpsBW10MHz ns3::WifiMacHeader (DATA ToDS=0, FromDS=0, MoreFrag=0, Retry=0, MoreData=0 Duration/ID=0us, DA=33:33:ff:00:00:02, SA=00:00:00:00:00:02, BSSID=ff:ff:ff:ff:ff:ff, FragNumber=0, SeqNumber=0) ns3::LlcSnapHeader (type 0x86dd) ns3::Ipv6Header ((Version 6 Traffic class 0x0 DSCP Default Flow Label 0x0 Payload Length 32 Next Header 58 Hop Limit 255 ):: > ff02::1:ff00:2) ns3::Icmpv6NS (( type = 135 (NS) code = 0 target = fe80::200:ff:fe00:2 checksum = 6266)) ns3::Icmpv6OptionLinkLayerAddress (( type = 1 length = 1 L2 Address = 00-06-00:00:00:00:00:02)) ns3::WifiMacTrailer ()
t 0.001058 /NodeList/7/DeviceList/0/$ns3::WifiNetDevice/Phy/State/Tx OfdmRate3MbpsBW10MHz ns3::WifiMacHeader (DATA ToDS=0, FromDS=0, MoreFrag=0, Retry=0, MoreData=0 Duration/ID=0us, DA=33:33:ff:00:00:08, SA=00:00:00:00:00:08, BSSID=ff:ff:ff:ff:ff:ff, FragNumber=0, SeqNumber=0) ns3::LlcSnapHeader (type 0x86dd) ns3::Ipv6Header ((Version 6 Traffic class 0x0 DSCP Default Flow Label 0x0 Payload Length 32 Next Header 58 Hop Limit 255 ):: > ff02::1:ff00:8) ns3::Icmpv6NS (( type = 135 (NS) code = 0 target = 2001:1::200:ff:fe00:8 checksum = 34136)) ns3::Icmpv6OptionLinkLayerAddress (( type = 1 length = 1 L2 Address = 00-06-00:00:00:00:00:08)) ns3::WifiMacTrailer ()
t 0.001058 /NodeList/9/DeviceList/0/$ns3::WifiNetDevice/Phy/State/Tx OfdmRate3MbpsBW10MHz ns3::WifiMacHeader (DATA ToDS=0, FromDS=0, MoreFrag=0, Retry=0, MoreData=0 Duration/ID=0us, DA=33:33:ff:00:00:0a, SA=00:00:00:00:00:0a, BSSID=ff:ff:ff:ff:ff:ff, FragNumber=0, SeqNumber=0) ns3::LlcSnapHeader (type 0x86dd) ns3::Ipv6Header ((Version 6 Traffic class 0x0 DSCP Default Flow Label 0x0 Payload Length 32 Next Header 58 Hop Limit 255 ):: > ff02::1:ff00:a) ns3::Icmpv6NS (( type = 135 (NS) code = 0 target = 2001:1::200:ff:fe00:a checksum = 32600)) ns3::Icmpv6OptionLinkLayerAddress (( type = 1 length = 1 L2 Address = 00-06-00:00:00:00:00:0a)) ns3::WifiMacTrailer ()
r 0.00139411 OfdmRate3MbpsBW10MHz/NodeList/5/DeviceList/0/$ns3::WifiNetDevice/Phy/State/RxOk ns3::WifiMacHeader (DATA ToDS=0, FromDS=0, MoreFrag=0, Retry=0, MoreData=0 Duration/ID=0us, DA=33:33:ff:00:00:08, SA=00:00:00:00:00:08, BSSID=ff:ff:ff:ff:ff:ff, FragNumber=0, SeqNumber=0) ns3::LlcSnapHeader (type 0x86dd) ns3::Ipv6Header ((Version 6 Traffic class 0x0 DSCP Default Flow Label 0x0 Payload Length 32 Next Header 58 Hop Limit 255 ):: > ff02::1:ff00:8) ns3::Icmpv6NS (( type = 135 (NS) code = 0 target = 2001:1::200:ff:fe00:8 checksum = 34136)) ns3::Icmpv6OptionLinkLayerAddress (( type = 1 length = 1 L2 Address = 00-06-00:00:00:00:00:08)) ns3::WifiMacTrailer ()
r 0.00139417 OfdmRate3MbpsBW10MHz/NodeList/6/DeviceList/0/$ns3::WifiNetDevice/Phy/State/RxOk ns3::WifiMacHeader (DATA ToDS=0, FromDS=0, MoreFrag=0, Retry=0, MoreData=0 Duration/ID=0us, DA=33:33:ff:00:00:08, SA=00:00:00:00:00:08, BSSID=ff:ff:ff:ff:ff:ff, FragNumber=0, SeqNumber=0) ns3::LlcSnapHeader (type 0x86dd) ns3::Ipv6Header ((Version 6 Traffic class 0x0 DSCP Default Flow Label 0x0 Payload Length 32 Next Header 58 Hop Limit 255 ):: > ff02::1:ff00:8) ns3::Icmpv6NS (( type = 135 (NS) code = 0 target = 2001:1::200:ff:fe00:8 checksum = 34136)) ns3::Icmpv6OptionLinkLayerAddress (( type = 1 length = 1 L2 Address = 00-06-00:00:00:00:00:08)) ns3::WifiMacTrailer ()
r 0.00139417 OfdmRate3MbpsBW10MHz/NodeList/3/DeviceList/0/$ns3::WifiNetDevice/Phy/State/RxOk ns3::WifiMacHeader (DATA ToDS=0, FromDS=0, MoreFrag=0, Retry=0, MoreData=0 Duration/ID=0us, DA=33:33:ff:00:00:02, SA=00:00:00:00:00:02, BSSID=ff:ff:ff:ff:ff:ff, FragNumber=0, SeqNumber=0) ns3::LlcSnapHeader (type 0x86dd) ns3::Ipv6Header ((Version 6 Traffic class 0x0 DSCP Default Flow Label 0x0 Payload Length 32 Next Header 58 Hop Limit 255 ):: > ff02::1:ff00:2) ns3::Icmpv6NS (( type = 135 (NS) code = 0 target = fe80::200:ff:fe00:2 checksum = 6266)) ns3::Icmpv6OptionLinkLayerAddress (( type = 1 length = 1 L2 Address = 00-06-00:00:00:00:00:02)) ns3::WifiMacTrailer ()
t 0.002058 /NodeList/3/DeviceList/0/$ns3::WifiNetDevice/Phy/State/Tx OfdmRate3MbpsBW10MHz ns3::WifiMacHeader (DATA ToDS=0, FromDS=0, MoreFrag=0, Retry=0, MoreData=0 Duration/ID=0us, DA=33:33:ff:00:00:04, SA=00:00:00:00:00:04, BSSID=ff:ff:ff:ff:ff:ff, FragNumber=0, SeqNumber=0) ns3::LlcSnapHeader (type 0x86dd) ns3::Ipv6Header ((Version 6 Traffic class 0x0 DSCP Default Flow Label 0x0 Payload Length 32 Next Header 58 Hop Limit 255 ):: > ff02::1:ff00:4) ns3::Icmpv6NS (( type = 135 (NS) code = 0 target = fe80::200:ff:fe00:4 checksum = 4730)) ns3::Icmpv6OptionLinkLayerAddress (( type = 1 length = 1 L2 Address = 00-06-00:00:00:00:00:04)) ns3::WifiMacTrailer ()
t 0.002058 /NodeList/4/DeviceList/0/$ns3::WifiNetDevice/Phy/State/Tx OfdmRate3MbpsBW10MHz ns3::WifiMacHeader (DATA ToDS=0, FromDS=0, MoreFrag=0, Retry=0, MoreData=0 Duration/ID=0us, DA=33:33:ff:00:00:05, SA=00:00:00:00:00:05, BSSID=ff:ff:ff:ff:ff:ff, FragNumber=0, SeqNumber=0) ns3::LlcSnapHeader (type 0x86dd) ns3::Ipv6Header ((Version 6 Traffic class 0x0 DSCP Default Flow Label 0x0 Payload Length 32 Next Header 58 Hop Limit 255 ):: > ff02::1:ff00:5) ns3::Icmpv6NS (( type = 135 (NS) code = 0 target = fe80::200:ff:fe00:5 checksum = 3962)) ns3::Icmpv6OptionLinkLayerAddress (( type = 1 length = 1 L2 Address = 00-06-00:00:00:00:00:05)) ns3::WifiMacTrailer ()
r 0.00239417 OfdmRate3MbpsBW10MHz/NodeList/1/DeviceList/0/$ns3::WifiNetDevice/Phy/State/RxOk ns3::WifiMacHeader (DATA ToDS=0, FromDS=0, MoreFrag=0, Retry=0, MoreData=0 Duration/ID=0us, DA=33:33:ff:00:00:04, SA=00:00:00:00:00:04, BSSID=ff:ff:ff:ff:ff:ff, FragNumber=0, SeqNumber=0) ns3::LlcSnapHeader (type 0x86dd) ns3::Ipv6Header ((Version 6 Traffic class 0x0 DSCP Default Flow Label 0x0 Payload Length 32 Next Header 58 Hop Limit 255 ):: > ff02::1:ff00:4) ns3::Icmpv6NS (( type = 135 (NS) code = 0 target = fe80::200:ff:fe00:4 checksum = 4730)) ns3::Icmpv6OptionLinkLayerAddress (( type = 1 length = 1 L2 Address = 00-06-00:00:00:00:00:04)) ns3::WifiMacTrailer ()
t 0.003058 /NodeList/0/DeviceList/0/$ns3::WifiNetDevice/Phy/State/Tx OfdmRate3MbpsBW10MHz ns3::WifiMacHeader (DATA ToDS=0, FromDS=0, MoreFrag=0, Retry=0, MoreData=0 Duration/ID=0us, DA=33:33:ff:00:00:01, SA=00:00:00:00:00:01, BSSID=ff:ff:ff:ff:ff:ff, FragNumber=0, SeqNumber=0) ns3::LlcSnapHeader (type 0x86dd) ns3::Ipv6Header ((Version 6 Traffic class 0x0 DSCP Default Flow Label 0x0 Payload Length 32 Next Header 58 Hop Limit 255 ):: > ff02::1:ff00:1) ns3::Icmpv6NS (( type = 135 (NS) code = 0 target = 2001:1::200:ff:fe00:1 checksum = 39512)) ns3::Icmpv6OptionLinkLayerAddress (( type = 1 length = 1 L2 Address = 00-06-00:00:00:00:00:01)) ns3::WifiMacTrailer ()
t 0.003058 /NodeList/2/DeviceList/0/$ns3::WifiNetDevice/Phy/State/Tx OfdmRate3MbpsBW10MHz ns3::WifiMacHeader (DATA ToDS=0, FromDS=0, MoreFrag=0, Retry=0, MoreData=0 Duration/ID=0us, DA=33:33:ff:00:00:03, SA=00:00:00:00:00:03, BSSID=ff:ff:ff:ff:ff:ff, FragNumber=0, SeqNumber=0) ns3::LlcSnapHeader (type 0x86dd) ns3::Ipv6Header ((Version 6 Traffic class 0x0 DSCP Default Flow Label 0x0 Payload Length 32 Next Header 58 Hop Limit 255 ):: > ff02::1:ff00:3) ns3::Icmpv6NS (( type = 135 (NS) code = 0 target = 2001:1::200:ff:fe00:3 checksum = 37976)) ns3::Icmpv6OptionLinkLayerAddress (( type = 1 length = 1 L2 Address = 00-06-00:00:00:00:00:03)) ns3::WifiMacTrailer ()
r 0.00339408 OfdmRate3MbpsBW10MHz/NodeList/8/DeviceList/0/$ns3::WifiNetDevice/Phy/State/RxOk ns3::WifiMacHeader (DATA ToDS=0, FromDS=0, MoreFrag=0, Retry=0, MoreData=0 Duration/ID=0us, DA=33:33:ff:00:00:03, SA=00:00:00:00:00:03, BSSID=ff:ff:ff:ff:ff:ff, FragNumber=0, SeqNumber=0) ns3::LlcSnapHeader (type 0x86dd) ns3::Ipv6Header ((Version 6 Traffic class 0x0 DSCP Default Flow Label 0x0 Payload Length 32 Next Header 58 Hop Limit 255 ):: > ff02::1:ff00:3) ns3::Icmpv6NS (( type = 135 (NS) code = 0 target = 2001:1::200:ff:fe00:3 checksum = 37976)) ns3::Icmpv6OptionLinkLayerAddress (( type = 1 length = 1 L2 Address = 00-06-00:00:00:00:00:03)) ns3::WifiMacTrailer ()
t 0.004058 /NodeList/5/DeviceList/0/$ns3::WifiNetDevice/Phy/State/Tx OfdmRate3MbpsBW10MHz ns3::WifiMacHeader (DATA ToDS=0, FromDS=0, MoreFrag=0, Retry=0, MoreData=0 Duration/ID=0us, DA=33:33:ff:00:00:06, SA=00:00:00:00:00:06, BSSID=ff:ff:ff:ff:ff:ff, FragNumber=0, SeqNumber=0) ns3::LlcSnapHeader (type 0x86dd) ns3::Ipv6Header ((Version 6 Traffic class 0x0 DSCP Default Flow Label 0x0 Payload Length 32 Next Header 58 Hop Limit 255 ):: > ff02::1:ff00:6) ns3::Icmpv6NS (( type = 135 (NS) code = 0 target = 2001:1::200:ff:fe00:6 checksum = 35672)) ns3::Icmpv6OptionLinkLayerAddress (( type = 1 length = 1 L2 Address = 00-06-00:00:00:00:00:06)) ns3::WifiMacTrailer ()
r 0.00439411 OfdmRate3MbpsBW10MHz/NodeList/7/DeviceList/0/$ns3::WifiNetDevice/Phy/State/RxOk ns3::WifiMacHeader (DATA ToDS=0, FromDS=0, MoreFrag=0, Retry=0, MoreData=0 Duration/ID=0us, DA=33:33:ff:00:00:06, SA=00:00:00:00:00:06, BSSID=ff:ff:ff:ff:ff:ff, FragNumber=0, SeqNumber=0) ns3::LlcSnapHeader (type 0x86dd) ns3::Ipv6Header ((Version 6 Traffic class 0x0 DSCP Default Flow Label 0x0 Payload Length 32 Next Header 58 Hop Limit 255 ):: > ff02::1:ff00:6) ns3::Icmpv6NS (( type = 135 (NS) code = 0 target = 2001:1::200:ff:fe00:6 checksum = 35672)) ns3::Icmpv6OptionLinkLayerAddress (( type = 1 length = 1 L2 Address = 00-06-00:00:00:00:00:06)) ns3::WifiMacTrailer ()
t 0.005058 /NodeList/0/DeviceList/0/$ns3::WifiNetDevice/Phy/State/Tx OfdmRate3MbpsBW10MHz ns3::WifiMacHeader (DATA ToDS=0, FromDS=0, MoreFrag=0, Retry=0, MoreData=0 Duration/ID=0us, DA=33:33:ff:00:00:01, SA=00:00:00:00:00:01, BSSID=ff:ff:ff:ff:ff:ff, FragNumber=0, SeqNumber=1) ns3::LlcSnapHeader (type 0x86dd) ns3::Ipv6Header ((Version 6 Traffic class 0x0 DSCP Default Flow Label 0x0 Payload Length 32 Next Header 58 Hop Limit 255 ):: > ff02::1:ff00:1) ns3::Icmpv6NS (( type = 135 (NS) code = 0 target = fe80::200:ff:fe00:1 checksum = 7034)) ns3::Icmpv6OptionLinkLayerAddress (( type = 1 length = 1 L2 Address = 00-06-00:00:00:00:00:01)) ns3::WifiMacTrailer ()
t 0.005058 /NodeList/2/DeviceList/0/$ns3::WifiNetDevice/Phy/State/Tx OfdmRate3MbpsBW10MHz ns3::WifiMacHeader (DATA ToDS=0, FromDS=0, MoreFrag=0, Retry=0, MoreData=0 Duration/ID=0us, DA=33:33:ff:00:00:03, SA=00:00:00:00:00:03, BSSID=ff:ff:ff:ff:ff:ff, FragNumber=0, SeqNumber=1) ns3::LlcSnapHeader (type 0x86dd) ns3::Ipv6Header ((Version 6 Traffic class 0x0 DSCP Default Flow Label 0x0 Payload Length 32 Next Header 58 Hop Limit 255 ):: > ff02::1:ff00:3) ns3::Icmpv6NS (( type = 135 (NS) code = 0 target = fe80::200:ff:fe00:3 checksum = 5498)) ns3::Icmpv6OptionLinkLayerAddress (( type = 1 length = 1 L2 Address = 00-06-00:00:00:00:00:03)) ns3::WifiMacTrailer ()
t 0.005058 /NodeList/4/DeviceList/0/$ns3::WifiNetDevice/Phy/State/Tx OfdmRate3MbpsBW10MHz ns3::WifiMacHeader (DATA ToDS=0, FromDS=0, MoreFrag=0, Retry=0, MoreData=0 Duration/ID=0us, DA=33:33:ff:00:00:05, SA=00:00:00:00:00:05, BSSID=ff:ff:ff:ff:ff:ff, FragNumber=0, SeqNumber=1) ns3::LlcSnapHeader (type 0x86dd) ns3::Ipv6Header ((Version 6 Traffic class 0x0 DSCP Default Flow Label 0x0 Payload Length 32 Next Header 58 Hop Limit 255 ):: > ff02::1:ff00:5) ns3::Icmpv6NS (( type = 135 (NS) code = 0 target = 2001:1::200:ff:fe00:5 checksum = 36440)) ns3::Icmpv6OptionLinkLayerAddress (( type = 1 length = 1 L2 Address = 00-06-00:00:00:00:00:05)) ns3::WifiMacTrailer ()
t 0.005058 /NodeList/7/DeviceList/0/$ns3::WifiNetDevice/Phy/State/Tx OfdmRate3MbpsBW10MHz ns3::WifiMacHeader (DATA ToDS=0, FromDS=0, MoreFrag=0, Retry=0, MoreData=0 Duration/ID=0us, DA=33:33:ff:00:00:08, SA=00:00:00:00:00:08, BSSID=ff:ff:ff:ff:ff:ff, FragNumber=0, SeqNumber=1) ns3::LlcSnapHeader (type 0x86dd) ns3::Ipv6Header ((Version 6 Traffic class 0x0 DSCP Default Flow Label 0x0 Payload Length 32 Next Header 58 Hop Limit 255 ):: > ff02::1:ff00:8) ns3::Icmpv6NS (( type = 135 (NS) code = 0 target = fe80::200:ff:fe00:8 checksum = 1658)) ns3::Icmpv6OptionLinkLayerAddress (( type = 1 length = 1 L2 Address = 00-06-00:00:00:00:00:08)) ns3::WifiMacTrailer ()
r 0.00539408 OfdmRate3MbpsBW10MHz/NodeList/8/DeviceList/0/$ns3::WifiNetDevice/Phy/State/RxOk ns3::WifiMacHeader (DATA ToDS=0, FromDS=0, MoreFrag=0, Retry=0, MoreData=0 Duration/ID=0us, DA=33:33:ff:00:00:03, SA=00:00:00:00:00:03, BSSID=ff:ff:ff:ff:ff:ff, FragNumber=0, SeqNumber=1) ns3::LlcSnapHeader (type 0x86dd) ns3::Ipv6Header ((Version 6 Traffic class 0x0 DSCP Default Flow Label 0x0 Payload Length 32 Next Header 58 Hop Limit 255 ):: > ff02::1:ff00:3) ns3::Icmpv6NS (( type = 135 (NS) code = 0 target = fe80::200:ff:fe00:3 checksum = 5498)) ns3::Icmpv6OptionLinkLayerAddress (( type = 1 length = 1 L2 Address = 00-06-00:00:00:00:00:03)) ns3::WifiMacTrailer ()
r 0.00539411 OfdmRate3MbpsBW10MHz/NodeList/5/DeviceList/0/$ns3::WifiNetDevice/Phy/State/RxOk ns3::WifiMacHeader (DATA ToDS=0, FromDS=0, MoreFrag=0, Retry=0, MoreData=0 Duration/ID=0us, DA=33:33:ff:00:00:08, SA=00:00:00:00:00:08, BSSID=ff:ff:ff:ff:ff:ff, FragNumber=0, SeqNumber=1) ns3::LlcSnapHeader (type 0x86dd) ns3::Ipv6Header ((Version 6 Traffic class 0x0 DSCP Default Flow Label 0x0 Payload Length 32 Next Header 58 Hop Limit 255 ):: > ff02::1:ff00:8) ns3::Icmpv6NS (( type = 135 (NS) code = 0 target = fe80::200:ff:fe00:8 checksum = 1658)) ns3::Icmpv6OptionLinkLayerAddress (( type = 1 length = 1 L2 Address = 00-06-00:00:00:00:00:08)) ns3::WifiMacTrailer ()
r 0.00539417 OfdmRate3MbpsBW10MHz/NodeList/6/DeviceList/0/$ns3::WifiNetDevice/Phy/State/RxOk ns3::WifiMacHeader (DATA ToDS=0, FromDS=0, MoreFrag=0, Retry=0, MoreData=0 Duration/ID=0us, DA=33:33:ff:00:00:08, SA=00:00:00:00:00:08, BSSID=ff:ff:ff:ff:ff:ff, FragNumber=0, SeqNumber=1) ns3::LlcSnapHeader (type 0x86dd) ns3::Ipv6Header ((Version 6 Traffic class 0x0 DSCP Default Flow Label 0x0 Payload Length 32 Next Header 58 Hop Limit 255 ):: > ff02::1:ff00:8) ns3::Icmpv6NS (( type = 135 (NS) code = 0 target = fe80::200:ff:fe00:8 checksum = 1658)) ns3::Icmpv6OptionLinkLayerAddress (( type = 1 length = 1 L2 Address = 00-06-00:00:00:00:00:08)) ns3::WifiMacTrailer ()
t 0.006058 /NodeList/3/DeviceList/0/$ns3::WifiNetDevice/Phy/State/Tx OfdmRate3MbpsBW10MHz ns3::WifiMacHeader (DATA ToDS=0, FromDS=0, MoreFrag=0, Retry=0, MoreData=0 Duration/ID=0us, DA=33:33:ff:00:00:04, SA=00:00:00:00:00:04, BSSID=ff:ff:ff:ff:ff:ff, FragNumber=0, SeqNumber=1) ns3::LlcSnapHeader (type 0x86dd) ns3::Ipv6Header ((Version 6 Traffic class 0x0 DSCP Default Flow Label 0x0 Payload Length 32 Next Header 58 Hop Limit 255 ):: > ff02::1:ff00:4) ns3::Icmpv6NS (( type = 135 (NS) code = 0 target = 2001:1::200:ff:fe00:4 checksum = 37208)) ns3::Icmpv6OptionLinkLayerAddress (( type = 1 length = 1 L2 Address = 00-06-00:00:00:00:00:04)) ns3::WifiMacTrailer ()
t 0.006058 /NodeList/6/DeviceList/0/$ns3::WifiNetDevice/Phy/State/Tx OfdmRate3MbpsBW10MHz ns3::WifiMacHeader (DATA ToDS=0, FromDS=0, MoreFrag=0, Retry=0, MoreData=0 Duration/ID=0us, DA=33:33:ff:00:00:07, SA=00:00:00:00:00:07, BSSID=ff:ff:ff:ff:ff:ff, FragNumber=0, SeqNumber=0) ns3::LlcSnapHeader (type 0x86dd) ns3::Ipv6Header ((Version 6 Traffic class 0x0 DSCP Default Flow Label 0x0 Payload Length 32 Next Header 58 Hop Limit 255 ):: > ff02::1:ff00:7) ns3::Icmpv6NS (( type = 135 (NS) code = 0 target = fe80::200:ff:fe00:7 checksum = 2426)) ns3::Icmpv6OptionLinkLayerAddress (( type = 1 length = 1 L2 Address = 00-06-00:00:00:00:00:07)) ns3::WifiMacTrailer ()
r 0.00639417 OfdmRate3MbpsBW10MHz/NodeList/7/DeviceList/0/$ns3::WifiNetDevice/Phy/State/RxOk ns3::WifiMacHeader (DATA ToDS=0, FromDS=0, MoreFrag=0, Retry=0, MoreData=0 Duration/ID=0us, DA=33:33:ff:00:00:07, SA=00:00:00:00:00:07, BSSID=ff:ff:ff:ff:ff:ff, FragNumber=0, SeqNumber=0) ns3::LlcSnapHeader (type 0x86dd) ns3::Ipv6Header ((Version 6 Traffic class 0x0 DSCP Default Flow Label 0x0 Payload Length 32 Next Header 58 Hop Limit 255 ):: > ff02::1:ff00:7) ns3::Icmpv6NS (( type = 135 (NS) code = 0 target = fe80::200:ff:fe00:7 checksum = 2426)) ns3::Icmpv6OptionLinkLayerAddress (( type = 1 length = 1 L2 Address = 00-06-00:00:00:00:00:07)) ns3::WifiMacTrailer ()
r 0.00639417 OfdmRate3MbpsBW10MHz/NodeList/1/DeviceList/0/$ns3::WifiNetDevice/Phy/State/RxOk ns3::WifiMacHeader (DATA ToDS=0, FromDS=0, MoreFrag=0, Retry=0, MoreData=0 Duration/ID=0us, DA=33:33:ff:00:00:04, SA=00:00:00:00:00:04, BSSID=ff:ff:ff:ff:ff:ff, FragNumber=0, SeqNumber=1) ns3::LlcSnapHeader (type 0x86dd) ns3::Ipv6Header ((Version 6 Traffic class 0x0 DSCP Default Flow Label 0x0 Payload Length 32 Next Header 58 Hop Limit 255 ):: > ff02::1:ff00:4) ns3::Icmpv6NS (( type = 135 (NS) code = 0 target = 2001:1::200:ff:fe00:4 checksum = 37208)) ns3::Icmpv6OptionLinkLayerAddress (( type = 1 length = 1 L2 Address = 00-06-00:00:00:00:00:04)) ns3::WifiMacTrailer ()
t 0.006452 /NodeList/6/DeviceList/0/$ns3::WifiNetDevice/Phy/State/Tx OfdmRate3MbpsBW10MHz ns3::WifiMacHeader (DATA ToDS=0, FromDS=0, MoreFrag=0, Retry=0, MoreData=0 Duration/ID=0us, DA=33:33:ff:00:00:07, SA=00:00:00:00:00:07, BSSID=ff:ff:ff:ff:ff:ff, FragNumber=0, SeqNumber=1) ns3::LlcSnapHeader (type 0x86dd) ns3::Ipv6Header ((Version 6 Traffic class 0x0 DSCP Default Flow Label 0x0 Payload Length 32 Next Header 58 Hop Limit 255 ):: > ff02::1:ff00:7) ns3::Icmpv6NS (( type = 135 (NS) code = 0 target = 2001:1::200:ff:fe00:7 checksum = 34904)) ns3::Icmpv6OptionLinkLayerAddress (( type = 1 length = 1 L2 Address = 00-06-00:00:00:00:00:07)) ns3::WifiMacTrailer ()
r 0.00678817 OfdmRate3MbpsBW10MHz/NodeList/7/DeviceList/0/$ns3::WifiNetDevice/Phy/State/RxOk ns3::WifiMacHeader (DATA ToDS=0, FromDS=0, MoreFrag=0, Retry=0, MoreData=0 Duration/ID=0us, DA=33:33:ff:00:00:07, SA=00:00:00:00:00:07, BSSID=ff:ff:ff:ff:ff:ff, FragNumber=0, SeqNumber=1) ns3::LlcSnapHeader (type 0x86dd) ns3::Ipv6Header ((Version 6 Traffic class 0x0 DSCP Default Flow Label 0x0 Payload Length 32 Next Header 58 Hop Limit 255 ):: > ff02::1:ff00:7) ns3::Icmpv6NS (( type = 135 (NS) code = 0 target = 2001:1::200:ff:fe00:7 checksum = 34904)) ns3::Icmpv6OptionLinkLayerAddress (( type = 1 length = 1 L2 Address = 00-06-00:00:00:00:00:07)) ns3::WifiMacTrailer ()
t 0.007058 /NodeList/5/DeviceList/0/$ns3::WifiNetDevice/Phy/State/Tx OfdmRate3MbpsBW10MHz ns3::WifiMacHeader (DATA ToDS=0, FromDS=0, MoreFrag=0, Retry=0, MoreData=0 Duration/ID=0us, DA=33:33:ff:00:00:06, SA=00:00:00:00:00:06, BSSID=ff:ff:ff:ff:ff:ff, FragNumber=0, SeqNumber=1) ns3::LlcSnapHeader (type 0x86dd) ns3::Ipv6Header ((Version 6 Traffic class 0x0 DSCP Default Flow Label 0x0 Payload Length 32 Next Header 58 Hop Limit 255 ):: > ff02::1:ff00:6) ns3::Icmpv6NS (( type = 135 (NS) code = 0 target = fe80::200:ff:fe00:6 checksum = 3194)) ns3::Icmpv6OptionLinkLayerAddress (( type = 1 length = 1 L2 Address = 00-06-00:00:00:00:00:06)) ns3::WifiMacTrailer ()
t 0.007058 /NodeList/8/DeviceList/0/$ns3::WifiNetDevice/Phy/State/Tx OfdmRate3MbpsBW10MHz ns3::WifiMacHeader (DATA ToDS=0, FromDS=0, MoreFrag=0, Retry=0, MoreData=0 Duration/ID=0us, DA=33:33:ff:00:00:09, SA=00:00:00:00:00:09, BSSID=ff:ff:ff:ff:ff:ff, FragNumber=0, SeqNumber=0) ns3::LlcSnapHeader (type 0x86dd) ns3::Ipv6Header ((Version 6 Traffic class 0x0 DSCP Default Flow Label 0x0 Payload Length 32 Next Header 58 Hop Limit 255 ):: > ff02::1:ff00:9) ns3::Icmpv6NS (( type = 135 (NS) code = 0 target = fe80::200:ff:fe00:9 checksum = 890)) ns3::Icmpv6OptionLinkLayerAddress (( type = 1 length = 1 L2 Address = 00-06-00:00:00:00:00:09)) ns3::WifiMacTrailer ()
r 0.00739408 OfdmRate3MbpsBW10MHz/NodeList/2/DeviceList/0/$ns3::WifiNetDevice/Phy/State/RxOk ns3::WifiMacHeader (DATA ToDS=0, FromDS=0, MoreFrag=0, Retry=0, MoreData=0 Duration/ID=0us, DA=33:33:ff:00:00:09, SA=00:00:00:00:00:09, BSSID=ff:ff:ff:ff:ff:ff, FragNumber=0, SeqNumber=0) ns3::LlcSnapHeader (type 0x86dd) ns3::Ipv6Header ((Version 6 Traffic class 0x0 DSCP Default Flow Label 0x0 Payload Length 32 Next Header 58 Hop Limit 255 ):: > ff02::1:ff00:9) ns3::Icmpv6NS (( type = 135 (NS) code = 0 target = fe80::200:ff:fe00:9 checksum = 890)) ns3::Icmpv6OptionLinkLayerAddress (( type = 1 length = 1 L2 Address = 00-06-00:00:00:00:00:09)) ns3::WifiMacTrailer ()
r 0.00739411 OfdmRate3MbpsBW10MHz/NodeList/7/DeviceList/0/$ns3::WifiNetDevice/Phy/State/RxOk ns3::WifiMacHeader (DATA ToDS=0, FromDS=0, MoreFrag=0, Retry=0, MoreData=0 Duration/ID=0us, DA=33:33:ff:00:00:06, SA=00:00:00:00:00:06, BSSID=ff:ff:ff:ff:ff:ff, FragNumber=0, SeqNumber=1) ns3::LlcSnapHeader (type 0x86dd) ns3::Ipv6Header ((Version 6 Traffic class 0x0 DSCP Default Flow Label 0x0 Payload Length 32 Next Header 58 Hop Limit 255 ):: > ff02::1:ff00:6) ns3::Icmpv6NS (( type = 135 (NS) code = 0 target = fe80::200:ff:fe00:6 checksum = 3194)) ns3::Icmpv6OptionLinkLayerAddress (( type = 1 length = 1 L2 Address = 00-06-00:00:00:00:00:06)) ns3::WifiMacTrailer ()
r 0.00739417 OfdmRate3MbpsBW10MHz/NodeList/0/DeviceList/0/$ns3::WifiNetDevice/Phy/State/RxOk ns3::WifiMacHeader (DATA ToDS=0, FromDS=0, MoreFrag=0, Retry=0, MoreData=0 Duration/ID=0us, DA=33:33:ff:00:00:09, SA=00:00:00:00:00:09, BSSID=ff:ff:ff:ff:ff:ff, FragNumber=0, SeqNumber=0) ns3::LlcSnapHeader (type 0x86dd) ns3::Ipv6Header ((Version 6 Traffic class 0x0 DSCP Default Flow Label 0x0 Payload Length 32 Next Header 58 Hop Limit 255 ):: > ff02::1:ff00:9) ns3::Icmpv6NS (( type = 135 (NS) code = 0 target = fe80::200:ff:fe00:9 checksum = 890)) ns3::Icmpv6OptionLinkLayerAddress (( type = 1 length = 1 L2 Address = 00-06-00:00:00:00:00:09)) ns3::WifiMacTrailer ()
t 0.008058 /NodeList/9/DeviceList/0/$ns3::WifiNetDevice/Phy/State/Tx OfdmRate3MbpsBW10MHz ns3::WifiMacHeader (DATA ToDS=0, FromDS=0, MoreFrag=0, Retry=0, MoreData=0 Duration/ID=0us, DA=33:33:ff:00:00:0a, SA=00:00:00:00:00:0a, BSSID=ff:ff:ff:ff:ff:ff, FragNumber=0, SeqNumber=1) ns3::LlcSnapHeader (type 0x86dd) ns3::Ipv6Header ((Version 6 Traffic class 0x0 DSCP Default Flow Label 0x0 Payload Length 32 Next Header 58 Hop Limit 255 ):: > ff02::1:ff00:a) ns3::Icmpv6NS (( type = 135 (NS) code = 0 target = fe80::200:ff:fe00:a checksum = 122)) ns3::Icmpv6OptionLinkLayerAddress (( type = 1 length = 1 L2 Address = 00-06-00:00:00:00:00:0a)) ns3::WifiMacTrailer ()
t 0.009058 /NodeList/1/DeviceList/0/$ns3::WifiNetDevice/Phy/State/Tx OfdmRate3MbpsBW10MHz ns3::WifiMacHeader (DATA ToDS=0, FromDS=0, MoreFrag=0, Retry=0, MoreData=0 Duration/ID=0us, DA=33:33:ff:00:00:02, SA=00:00:00:00:00:02, BSSID=ff:ff:ff:ff:ff:ff, FragNumber=0, SeqNumber=1) ns3::LlcSnapHeader (type 0x86dd) ns3::Ipv6Header ((Version 6 Traffic class 0x0 DSCP Default Flow Label 0x0 Payload Length 32 Next Header 58 Hop Limit 255 ):: > ff02::1:ff00:2) ns3::Icmpv6NS (( type = 135 (NS) code = 0 target = 2001:1::200:ff:fe00:2 checksum = 38744)) ns3::Icmpv6OptionLinkLayerAddress (( type = 1 length = 1 L2 Address = 00-06-00:00:00:00:00:02)) ns3::WifiMacTrailer ()
t 0.009058 /NodeList/8/DeviceList/0/$ns3::WifiNetDevice/Phy/State/Tx OfdmRate3MbpsBW10MHz ns3::WifiMacHeader (DATA ToDS=0, FromDS=0, MoreFrag=0, Retry=0, MoreData=0 Duration/ID=0us, DA=33:33:ff:00:00:09, SA=00:00:00:00:00:09, BSSID=ff:ff:ff:ff:ff:ff, FragNumber=0, SeqNumber=1) ns3::LlcSnapHeader (type 0x86dd) ns3::Ipv6Header ((Version 6 Traffic class 0x0 DSCP Default Flow Label 0x0 Payload Length 32 Next Header 58 Hop Limit 255 ):: > ff02::1:ff00:9) ns3::Icmpv6NS (( type = 135 (NS) code = 0 target = 2001:1::200:ff:fe00:9 checksum = 33368)) ns3::Icmpv6OptionLinkLayerAddress (( type = 1 length = 1 L2 Address = 00-06-00:00:00:00:00:09)) ns3::WifiMacTrailer ()
r 0.00939408 OfdmRate3MbpsBW10MHz/NodeList/2/DeviceList/0/$ns3::WifiNetDevice/Phy/State/RxOk ns3::WifiMacHeader (DATA ToDS=0, FromDS=0, MoreFrag=0, Retry=0, MoreData=0 Duration/ID=0us, DA=33:33:ff:00:00:09, SA=00:00:00:00:00:09, BSSID=ff:ff:ff:ff:ff:ff, FragNumber=0, SeqNumber=1) ns3::LlcSnapHeader (type 0x86dd) ns3::Ipv6Header ((Version 6 Traffic class 0x0 DSCP Default Flow Label 0x0 Payload Length 32 Next Header 58 Hop Limit 255 ):: > ff02::1:ff00:9) ns3::Icmpv6NS (( type = 135 (NS) code = 0 target = 2001:1::200:ff:fe00:9 checksum = 33368)) ns3::Icmpv6OptionLinkLayerAddress (( type = 1 length = 1 L2 Address = 00-06-00:00:00:00:00:09)) ns3::WifiMacTrailer ()
r 0.00939417 OfdmRate3MbpsBW10MHz/NodeList/0/DeviceList/0/$ns3::WifiNetDevice/Phy/State/RxOk ns3::WifiMacHeader (DATA ToDS=0, FromDS=0, MoreFrag=0, Retry=0, MoreData=0 Duration/ID=0us, DA=33:33:ff:00:00:09, SA=00:00:00:00:00:09, BSSID=ff:ff:ff:ff:ff:ff, FragNumber=0, SeqNumber=1) ns3::LlcSnapHeader (type 0x86dd) ns3::Ipv6Header ((Version 6 Traffic class 0x0 DSCP Default Flow Label 0x0 Payload Length 32 Next Header 58 Hop Limit 255 ):: > ff02::1:ff00:9) ns3::Icmpv6NS (( type = 135 (NS) code = 0 target = 2001:1::200:ff:fe00:9 checksum = 33368)) ns3::Icmpv6OptionLinkLayerAddress (( type = 1 length = 1 L2 Address = 00-06-00:00:00:00:00:09)) ns3::WifiMacTrailer ()
r 0.00939417 OfdmRate3MbpsBW10MHz/NodeList/3/DeviceList/0/$ns3::WifiNetDevice/Phy/State/RxOk ns3::WifiMacHeader (DATA ToDS=0, FromDS=0, MoreFrag=0, Retry=0, MoreData=0 Duration/ID=0us, DA=33:33:ff:00:00:02, SA=00:00:00:00:00:02, BSSID=ff:ff:ff:ff:ff:ff, FragNumber=0, SeqNumber=1) ns3::LlcSnapHeader (type 0x86dd) ns3::Ipv6Header ((Version 6 Traffic class 0x0 DSCP Default Flow Label 0x0 Payload Length 32 Next Header 58 Hop Limit 255 ):: > ff02::1:ff00:2) ns3::Icmpv6NS (( type = 135 (NS) code = 0 target = 2001:1::200:ff:fe00:2 checksum = 38744)) ns3::Icmpv6OptionLinkLayerAddress (( type = 1 length = 1 L2 Address = 00-06-00:00:00:00:00:02)) ns3::WifiMacTrailer ()
t 1.00006 /NodeList/1/DeviceList/0/$ns3::WifiNetDevice/Phy/State/Tx OfdmRate3MbpsBW10MHz ns3::WifiMacHeader (DATA ToDS=0, FromDS=0, MoreFrag=0, Retry=0, MoreData=0 Duration/ID=0us, DA=33:33:00:00:00:02, SA=00:00:00:00:00:02, BSSID=ff:ff:ff:ff:ff:ff, FragNumber=0, SeqNumber=2) ns3::LlcSnapHeader (type 0x86dd) ns3::Ipv6Header ((Version 6 Traffic class 0x0 DSCP Default Flow Label 0x0 Payload Length 16 Next Header 58 Hop Limit 255 )fe80::200:ff:fe00:2 > ff02::2) ns3::Icmpv6RS (( type = 133 (RS) code = 0 checksum = 10875)) ns3::Icmpv6OptionLinkLayerAddress (( type = 1 length = 1 L2 Address = 00-06-00:00:00:00:00:02)) ns3::WifiMacTrailer ()
r 1.00035 OfdmRate3MbpsBW10MHz/NodeList/3/DeviceList/0/$ns3::WifiNetDevice/Phy/State/RxOk ns3::WifiMacHeader (DATA ToDS=0, FromDS=0, MoreFrag=0, Retry=0, MoreData=0 Duration/ID=0us, DA=33:33:00:00:00:02, SA=00:00:00:00:00:02, BSSID=ff:ff:ff:ff:ff:ff, FragNumber=0, SeqNumber=2) ns3::LlcSnapHeader (type 0x86dd) ns3::Ipv6Header ((Version 6 Traffic class 0x0 DSCP Default Flow Label 0x0 Payload Length 16 Next Header 58 Hop Limit 255 )fe80::200:ff:fe00:2 > ff02::2) ns3::Icmpv6RS (( type = 133 (RS) code = 0 checksum = 10875)) ns3::Icmpv6OptionLinkLayerAddress (( type = 1 length = 1 L2 Address = 00-06-00:00:00:00:00:02)) ns3::WifiMacTrailer ()
t 1.00206 /NodeList/3/DeviceList/0/$ns3::WifiNetDevice/Phy/State/Tx OfdmRate3MbpsBW10MHz ns3::WifiMacHeader (DATA ToDS=0, FromDS=0, MoreFrag=0, Retry=0, MoreData=0 Duration/ID=0us, DA=33:33:00:00:00:02, SA=00:00:00:00:00:04, BSSID=ff:ff:ff:ff:ff:ff, FragNumber=0, SeqNumber=2) ns3::LlcSnapHeader (type 0x86dd) ns3::Ipv6Header ((Version 6 Traffic class 0x0 DSCP Default Flow Label 0x0 Payload Length 16 Next Header 58 Hop Limit 255 )fe80::200:ff:fe00:4 > ff02::2) ns3::Icmpv6RS (( type = 133 (RS) code = 0 checksum = 9851)) ns3::Icmpv6OptionLinkLayerAddress (( type = 1 length = 1 L2 Address = 00-06-00:00:00:00:00:04)) ns3::WifiMacTrailer ()
r 1.00235 OfdmRate3MbpsBW10MHz/NodeList/1/DeviceList/0/$ns3::WifiNetDevice/Phy/State/RxOk ns3::WifiMacHeader (DATA ToDS=0, FromDS=0, MoreFrag=0, Retry=0, MoreData=0 Duration/ID=0us, DA=33:33:00:00:00:02, SA=00:00:00:00:00:04, BSSID=ff:ff:ff:ff:ff:ff, FragNumber=0, SeqNumber=2) ns3::LlcSnapHeader (type 0x86dd) ns3::Ipv6Header ((Version 6 Traffic class 0x0 DSCP Default Flow Label 0x0 Payload Length 16 Next Header 58 Hop Limit 255 )fe80::200:ff:fe00:4 > ff02::2) ns3::Icmpv6RS (( type = 133 (RS) code = 0 checksum = 9851)) ns3::Icmpv6OptionLinkLayerAddress (( type = 1 length = 1 L2 Address = 00-06-00:00:00:00:00:04)) ns3::WifiMacTrailer ()
t 1.00406 /NodeList/8/DeviceList/0/$ns3::WifiNetDevice/Phy/State/Tx OfdmRate3MbpsBW10MHz ns3::WifiMacHeader (DATA ToDS=0, FromDS=0, MoreFrag=0, Retry=0, MoreData=0 Duration/ID=0us, DA=33:33:00:00:00:02, SA=00:00:00:00:00:09, BSSID=ff:ff:ff:ff:ff:ff, FragNumber=0, SeqNumber=2) ns3::LlcSnapHeader (type 0x86dd) ns3::Ipv6Header ((Version 6 Traffic class 0x0 DSCP Default Flow Label 0x0 Payload Length 16 Next Header 58 Hop Limit 255 )fe80::200:ff:fe00:9 > ff02::2) ns3::Icmpv6RS (( type = 133 (RS) code = 0 checksum = 7291)) ns3::Icmpv6OptionLinkLayerAddress (( type = 1 length = 1 L2 Address = 00-06-00:00:00:00:00:09)) ns3::WifiMacTrailer ()
r 1.00435 OfdmRate3MbpsBW10MHz/NodeList/2/DeviceList/0/$ns3::WifiNetDevice/Phy/State/RxOk ns3::WifiMacHeader (DATA ToDS=0, FromDS=0, MoreFrag=0, Retry=0, MoreData=0 Duration/ID=0us, DA=33:33:00:00:00:02, SA=00:00:00:00:00:09, BSSID=ff:ff:ff:ff:ff:ff, FragNumber=0, SeqNumber=2) ns3::LlcSnapHeader (type 0x86dd) ns3::Ipv6Header ((Version 6 Traffic class 0x0 DSCP Default Flow Label 0x0 Payload Length 16 Next Header 58 Hop Limit 255 )fe80::200:ff:fe00:9 > ff02::2) ns3::Icmpv6RS (( type = 133 (RS) code = 0 checksum = 7291)) ns3::Icmpv6OptionLinkLayerAddress (( type = 1 length = 1 L2 Address = 00-06-00:00:00:00:00:09)) ns3::WifiMacTrailer ()
r 1.00435 OfdmRate3MbpsBW10MHz/NodeList/0/DeviceList/0/$ns3::WifiNetDevice/Phy/State/RxOk ns3::WifiMacHeader (DATA ToDS=0, FromDS=0, MoreFrag=0, Retry=0, MoreData=0 Duration/ID=0us, DA=33:33:00:00:00:02, SA=00:00:00:00:00:09, BSSID=ff:ff:ff:ff:ff:ff, FragNumber=0, SeqNumber=2) ns3::LlcSnapHeader (type 0x86dd) ns3::Ipv6Header ((Version 6 Traffic class 0x0 DSCP Default Flow Label 0x0 Payload Length 16 Next Header 58 Hop Limit 255 )fe80::200:ff:fe00:9 > ff02::2) ns3::Icmpv6RS (( type = 133 (RS) code = 0 checksum = 7291)) ns3::Icmpv6OptionLinkLayerAddress (( type = 1 length = 1 L2 Address = 00-06-00:00:00:00:00:09)) ns3::WifiMacTrailer ()